ITEM: TIMESTEP
1
ITEM: NUMBER OF ATOMS
2000
ITEM: BOX BOUNDS pp pp pp
-6.271e+02 6.271e+02
-6.271e+02 6.271e+02
0 1.914e+04
ITEM: ATOMS id type x y z Radius
0 0 450.934377 -190.449026 271.946414 6.217966
1 0 447.011984 -183.843676 278.316049 3.751446
2 0 449.103042 -199.143954 271.535534 2.643942
3 0 446.734474 -198.868259 265.937583 3.394498
4 0 440.803841 -183.707646 279.544442 2.518258
5 0 448.923667 -199.195978 260.153974 2.748967
6 0 444.254454 -203.254446 262.076277 2.893739
7 0 437.167315 -179.888017 284.266770 4.522354
8 0 441.248400 -171.866161 286.245626 4.683715
9 0 445.799215 -168.038470 284.229460 1.584621
10 0 435.197017 -186.589029 286.817294 2.905728
11 0 444.526635 -164.635754 282.568036 2.405757
12 0 434.529388 -189.515074 280.443152 4.125614
13 0 418.993019 -174.001207 277.744014 5.481571
14 0 426.790071 -170.105701 280.213649 3.568521
15 0 429.488462 -177.730660 279.976605 4.511594
16 0 413.882952 -170.295577 284.725250 3.871543
17 0 416.049592 -161.544358 280.148809 6.184046
18 0 410.191953 -161.021661 271.095117 4.578842
19 0 403.389254 -176.956047 271.705694 3.458454
20 0 403.291636 -171.012131 273.442078 2.728476
21 0 397.140855 -167.193515 273.631011 4.500323
22 0 410.193866 -175.801751 274.523476 3.984297
23 0 411.370974 -180.057154 266.804066 4.846105
24 0 401.844155 -162.111381 278.532832 3.921103
25 0 385.898030 -176.975220 264.139140 4.277348
26 0 390.692012 -180.592494 257.396910 4.742729
27 0 388.226425 -188.836674 257.872128 3.838558
28 0 386.191219 -178.580911 271.083842 2.815991
29 0 399.857865 -180.271917 253.415781 5.167592
30 0 406.819870 -176.750786 259.257986 4.535872
31 1 559.934812 368.677035 557.441625 6.217966
32 1 551.411429 373.108986 560.143071 3.751446
33 1 565.603038 371.711980 551.256813 2.643942
34 1 562.107313 371.976645 546.277701 3.394498
35 1 550.800553 379.265590 561.441562 2.518258
36 1 546.076260 376.869079 561.231423 2.748967
37 1 543.533839 372.681745 564.132294 2.893739
38 1 574.170064 375.774989 561.341924 4.522354
39 1 581.822962 378.573642 557.038204 4.683715
40 1 585.143144 383.837515 555.958135 1.584621
41 1 566.911647 374.248703 560.663063 2.905728
42 1 566.443084 369.516701 563.142313 2.405757
43 1 590.099668 383.060903 558.700117 4.125614
44 1 584.581430 396.576747 559.289215 5.481571
45 1 584.085112 387.619347 560.548866 3.568521
46 1 592.834285 395.867837 565.038077 4.511594
47 1 584.485826 404.947052 555.066067 3.871543
48 1 573.174343 394.500785 560.863613 6.184046
49 1 592.386651 402.608632 552.843069 4.578842
50 1 578.813375 361.466392 530.552199 3.458454
51 1 573.648581 359.386098 533.263651 2.728476
52 1 569.566231 363.736399 537.421271 4.500323
53 1 565.384122 370.842642 539.692188 3.984297
54 1 573.994925 361.337763 523.735591 4.846105
55 1 579.303329 366.796197 519.324060 3.921103
56 1 538.973247 365.828031 575.620701 4.277348
57 1 544.303242 365.287111 568.352747 4.742729
58 1 533.772032 371.175352 572.363799 3.838558
59 1 547.035293 368.560595 562.049391 2.815991
60 1 543.300958 362.891464 583.554268 5.167592
61 1 533.316136 371.307112 563.929112 4.535872
62 2 -42.689936 -336.702948 848.043499 6.217966
63 2 -47.025643 -330.773095 841.288756 3.751446
64 2 -47.335354 -335.949402 837.534318 2.643942
65 2 -44.873028 -341.202557 835.746383 3.394498
66 2 -51.083188 -326.872204 838.440603 2.518258
67 2 -49.733549 -344.334445 833.614572 2.748967
68 2 -51.766158 -326.619471 833.057145 2.893739
69 2 -49.863575 -332.441326 860.007683 4.522354
70 2 -55.011786 -327.399078 865.751632 4.683715
71 2 -58.477984 -322.127689 865.831675 1.584621
72 2 -43.363087 -332.956716 856.378448 2.905728
73 2 -39.772696 -329.023514 855.802040 2.405757
74 2 -57.529272 -316.581813 864.587036 4.125614
75 2 -70.818144 -312.117865 868.848586 5.481571
76 2 -64.804148 -307.418350 863.968577 3.568521
77 2 -73.964022 -315.671328 859.999718 4.511594
78 2 -66.850718 -305.510632 874.264085 3.871543
79 2 -71.197385 -324.815625 864.977968 6.184046
80 2 -62.104182 -327.413918 859.687233 4.578842
81 2 -22.892676 -332.470601 828.817264 3.458454
82 2 -25.173711 -328.067867 832.527723 2.728476
83 2 -32.298464 -327.687500 833.961025 4.500323
84 2 -40.645103 -329.344308 834.042005 3.984297
85 2 -26.507555 -333.587860 821.367668 4.846105
86 2 -38.421729 -330.064805 841.617041 3.921103
87 2 -83.739148 -340.937496 865.035970 4.277348
88 2 -74.751560 -341.783022 865.217493 4.742729
89 2 -83.694038 -332.811647 864.254281 3.838558
90 2 -89.631220 -333.111247 867.366063 2.815991
91 2 -67.772060 -335.277200 867.966554 5.167592
92 2 -87.840320 -345.858519 871.119273 4.535872
93 3 399.510685 -261.657554 1140.768734 6.217966
94 3 405.724833 -258.961011 1148.096837 3.751446
95 3 392.652109 -256.708895 1137.865461 2.643942
96 3 411.762794 -260.892935 1144.725192 3.394498
97 3 393.486148 -254.216910 1133.375347 2.518258
98 3 389.368241 -252.596674 1136.643982 2.748967
99 3 414.702115 -258.232062 1149.615766 2.893739
100 3 412.444341 -236.731990 1150.948443 4.522354
101 3 417.395752 -243.912267 1153.923075 4.683715
102 3 406.775629 -234.774977 1152.352430 1.584621
103 3 420.986779 -250.640772 1153.435883 2.905728
104 3 417.989790 -254.907993 1152.218278 2.405757
105 3 410.904373 -228.661709 1148.197216 4.125614
106 3 435.209863 -259.591764 1144.747234 5.481571
107 3 438.163344 -265.678524 1150.771881 3.568521
108 3 429.883849 -267.374056 1141.150539 4.511594
109 3 443.418154 -256.346783 1148.079136 3.871543
110 3 428.518346 -250.589956 1148.253752 6.184046
111 3 433.389186 -264.657236 1133.143861 4.578842
112 3 391.630017 -273.568693 1142.651817 3.458454
113 3 394.968519 -277.018796 1146.564091 2.728476
114 3 395.573244 -284.217537 1145.618071 4.500323
115 3 400.921554 -288.772757 1150.452289 3.984297
116 3 404.285607 -293.504722 1143.695805 4.846105
117 3 398.818087 -271.718867 1142.513687 3.921103
118 3 383.044075 -286.697393 1123.443278 4.277348
119 3 389.363346 -285.578096 1129.794544 4.742729
120 3 376.816524 -287.175387 1128.737232 3.838558
121 3 395.717031 -282.552850 1126.947062 2.815991
122 3 392.759109 -289.787065 1138.207820 5.167592
123 3 387.298124 -288.552229 1146.187896 4.535872
124 4 -35.275941 496.050360 1413.448150 6.217966
125 4 -35.515491 493.021061 1422.953624 3.751446
126 4 -42.248232 499.070427 1408.782756 2.643942
127 4 -42.361113 490.848566 1423.463421 3.394498
128 4 -39.989683 492.524255 1428.630961 2.518258
129 4 -44.516223 495.260881 1429.195043 2.748967
130 4 -46.904386 490.137795 1429.271027 2.893739
131 4 -27.168676 476.195142 1405.346021 4.522354
132 4 -32.045350 483.500333 1408.134125 4.683715
133 4 -31.946995 488.084437 1412.450814 1.584621
134 4 -20.762535 473.808262 1402.356413 2.905728
135 4 -19.815438 474.994454 1397.232951 2.405757
136 4 -32.727748 487.038348 1418.033808 4.125614
137 4 -32.742618 464.481118 1396.964917 5.481571
138 4 -36.164622 472.857302 1397.409333 3.568521
139 4 -42.283678 461.594198 1395.697056 4.511594
140 4 -26.131882 461.924982 1390.827066 3.871543
141 4 -28.707537 465.879096 1407.917845 6.184046
142 4 -20.735348 456.896676 1394.989685 4.578842
143 4 -38.909179 488.098074 1440.228174 3.458454
144 4 -33.810253 489.042209 1443.614064 2.728476
145 4 -45.352569 486.676503 1435.649884 4.500323
146 4 -36.969627 494.468776 1446.112957 3.984297
147 4 -31.223080 499.281308 1441.420632 4.846105
148 4 -27.857750 502.451968 1433.936988 3.921103
149 4 -24.218361 502.009357 1446.654317 4.277348
150 4 -24.647844 510.334326 1443.185162 4.742729
151 4 -16.098341 501.396270 1446.084000 3.838558
152 4 -21.420710 515.975432 1439.240834 2.815991
153 4 -20.706597 496.092456 1453.198698 5.167592
154 4 -13.034661 490.873615 1450.124615 4.535872
155 5 -374.591490 -285.709387 1730.778990 6.217966
156 5 -380.357871 -284.407317 1722.738994 3.751446
157 5 -374.991388 -282.606950 1719.700090 2.643942
158 5 -370.220087 -285.902001 1739.429143 3.394498
159 5 -386.621268 -285.203025 1722.871908 2.518258
160 5 -367.022266 -291.036993 1740.791408 2.748967
161 5 -362.277162 -292.558824 1738.085468 2.893739
162 5 -374.948922 -280.809935 1709.711106 4.522354
163 5 -380.685283 -277.872083 1703.124416 4.683715
164 5 -369.638902 -278.544930 1711.857668 1.584621
165 5 -371.076085 -280.918228 1716.104954 2.905728
166 5 -369.319750 -276.319914 1718.181119 2.405757
167 5 -387.914360 -278.268944 1698.074921 4.125614
168 5 -395.645066 -307.498570 1723.908771 5.481571
169 5 -391.381154 -313.832970 1719.034091 3.568521
170 5 -392.814431 -301.335338 1716.451247 4.511594
171 5 -394.114497 -304.662610 1732.713064 3.871543
172 5 -390.017212 -293.295972 1723.059003 6.184046
173 5 -403.995967 -309.995387 1718.710091 4.578842
174 5 -391.576102 -319.834600 1715.360962 3.458454
175 5 -390.866846 -321.622688 1709.474164 2.728476
176 5 -388.173952 -317.151043 1704.442095 4.500323
177 5 -381.271452 -313.746137 1700.733282 3.984297
178 5 -387.422075 -327.077562 1715.162491 4.846105
179 5 -391.183129 -325.152535 1722.930321 3.921103
180 5 -377.034550 -330.905786 1735.912405 4.277348
181 5 -384.960913 -331.393893 1740.208814 4.742729
182 5 -389.279445 -336.816326 1735.098636 3.838558
183 5 -371.756369 -332.956035 1740.298507 2.815991
184 5 -394.569061 -330.068892 1732.228108 5.167592
185 5 -394.175849 -333.107137 1722.923413 4.535872
186 6 254.112971 177.685966 2007.997417 6.217966
187 6 259.522140 183.773826 2002.229668 3.751446
188 6 245.315608 178.170260 2009.312214 2.643942
189 6 254.540436 188.445290 2000.101141 3.394498
190 6 264.129774 187.875239 2001.021449 2.518258
191 6 250.121004 190.739751 1996.408752 2.748967
192 6 254.585401 194.266800 1996.124980 2.893739
193 6 252.200022 160.128368 1992.644310 4.522354
194 6 249.813337 166.629055 1998.724285 4.683715
195 6 244.721589 169.634807 2000.907922 1.584621
196 6 256.581970 158.490905 1986.834537 2.905728
197 6 254.913197 153.515806 1985.921656 2.405757
198 6 246.740279 170.603309 2006.216623 4.125614
199 6 236.428523 152.239620 2004.174599 5.481571
200 6 230.121854 148.479894 2009.481054 3.568521
201 6 242.915535 147.965717 2010.592749 4.511594
202 6 228.768658 151.687210 1998.806113 3.871543
203 6 240.108165 163.206170 2002.514783 6.184046
204 6 244.326126 142.042161 2003.751341 4.578842
205 6 248.514655 131.455779 1998.369683 3.458454
206 6 244.998367 133.151067 2003.177637 2.728476
207 6 247.977353 135.721343 2009.294553 4.500323
208 6 250.566035 142.606742 2013.569768 3.984297
209 6 244.437950 141.528954 2019.914412 4.846105
210 6 243.253832 135.636952 2026.381244 3.921103
211 6 249.928852 138.920244 2042.601021 4.277348
212 6 253.267726 141.075513 2034.493535 4.742729
213 6 242.317255 137.585857 2039.869019 3.838558
214 6 239.664106 133.863690 2034.995513 2.815991
215 6 250.029326 146.389822 2026.678012 5.167592
216 6 243.085431 127.892058 2032.363662 4.535872
217 7 475.148192 -336.804358 2313.574927 6.217966
218 7 468.155331 -336.136979 2306.486728 3.751446
219 7 480.636080 -343.746171 2314.747663 2.643942
220 7 477.426586 -346.534540 2319.095301 3.394498
221 7 465.272663 -341.031086 2303.733507 2.518258
222 7 462.317634 -334.054872 2304.492552 2.748967
223 7 463.380221 -345.778676 2301.933414 2.893739
224 7 502.397538 -338.089213 2309.092615 4.522354
225 7 494.295206 -336.583795 2313.216595 4.683715
226 7 505.398974 -335.153981 2304.628690 1.584621
227 7 488.488241 -332.657864 2316.235645 2.905728
228 7 486.823262 -328.207904 2313.831877 2.405757
229 7 483.636148 -336.611320 2319.577681 4.125614
230 7 497.727817 -315.055868 2297.254116 5.481571
231 7 496.622050 -316.229426 2306.168605 3.568521
232 7 502.891827 -306.857065 2300.049389 4.511594
233 7 492.824056 -313.619093 2289.322389 3.871543
234 7 502.503385 -325.678477 2296.294172 6.184046
235 7 503.397597 -329.417698 2306.398965 4.578842
236 7 493.552030 -301.931738 2316.006044 3.458454
237 7 499.489207 -303.590890 2315.412880 2.728476
238 7 502.294237 -305.378604 2308.961088 4.500323
239 7 507.165356 -312.128059 2306.993005 3.984297
240 7 514.959662 -309.938837 2310.595465 4.846105
241 7 520.744598 -303.584777 2308.535932 3.921103
242 7 479.685916 -353.390171 2331.071665 4.277348
243 7 485.947940 -356.358229 2325.283549 4.742729
244 7 486.140346 -364.748762 2327.223198 3.838558
245 7 486.913853 -366.833805 2320.934100 2.815991
246 7 472.880639 -350.922550 2324.931648 5.167592
247 7 466.859528 -356.344389 2319.488237 4.535872
248 8 517.591638 -75.740567 2608.462641 6.217966
249 8 518.601193 -66.137954 2605.940997 3.751446
250 8 509.916520 -79.844932 2610.381802 2.643942
251 8 525.209843 -65.393313 2608.638936 3.394498
252 8 518.046277 -61.171899 2602.135810 2.518258
253 8 526.158570 -60.945610 2612.794387 2.748967
254 8 521.642762 -57.063849 2602.364683 2.893739
255 8 515.041381 -84.243383 2602.357444 4.522354
256 8 506.445599 -82.498238 2599.531087 4.683715
257 8 501.694396 -85.185239 2596.388779 1.584621
258 8 519.239017 -88.273369 2607.085577 2.905728
259 8 499.888024 -88.730937 2595.869523 2.405757
260 8 496.606550 -89.760209 2601.482253 4.125614
261 8 540.474925 -72.427161 2590.478018 5.481571
262 8 546.726464 -72.786110 2597.024581 3.568521
263 8 536.910798 -64.417562 2595.332061 4.511594
264 8 542.582955 -58.332194 2593.817809 3.871543
265 8 533.208262 -68.774098 2604.434876 6.184046
266 8 550.917656 -72.055076 2603.986358 4.578842
267 8 557.262975 -69.853720 2598.295771 3.458454
268 8 552.913586 -73.732080 2596.199148 2.728476
269 8 553.085212 -80.817502 2597.767234 4.500323
270 8 559.342752 -68.193625 2591.331486 3.984297
271 8 558.188184 -63.226350 2603.270674 4.846105
272 8 554.140802 -62.641302 2611.070073 3.921103
273 8 556.171677 -58.890881 2593.742502 4.277348
274 8 559.219499 -51.266750 2589.986441 4.742729
275 8 563.536143 -62.346177 2594.454704 3.838558
276 8 556.418436 -44.715018 2592.574352 2.815991
277 8 571.507012 -60.458409 2590.573842 5.167592
278 8 577.578508 -55.563135 2596.387776 4.535872
279 9 -183.984573 -2.137160 2898.008144 6.217966
280 9 -191.654160 2.215943 2902.678903 3.751446
281 9 -176.650708 -5.446174 2901.797335 2.643942
282 9 -193.926906 5.910769 2896.955787 3.394498
283 9 -177.236352 -8.471108 2905.968315 2.518258
284 9 -199.683120 4.005810 2898.227148 2.748967
285 9 -202.679979 -0.318615 2900.381138 2.893739
286 9 -174.974245 -5.292235 2885.612497 4.522354
287 9 -173.461481 1.440471 2879.504837 4.683715
288 9 -170.009897 2.605871 2874.332656 1.584621
289 9 -180.070022 -9.823410 2888.619159 2.905728
290 9 -180.115094 -8.668525 2893.855001 2.405757
291 9 -166.549331 6.939198 2875.911544 4.125614
292 9 -154.349390 -5.023452 2878.871301 5.481571
293 9 -155.616206 3.236267 2882.369914 3.568521
294 9 -160.751988 -7.992818 2886.047940 4.511594
295 9 -146.012520 -0.966395 2877.163249 3.871543
296 9 -153.951586 -15.443924 2873.412819 6.184046
297 9 -163.719152 2.331661 2882.754167 4.578842
298 9 -171.038111 24.273417 2865.052594 3.458454
299 9 -167.771731 19.022640 2864.713780 2.728476
300 9 -170.449969 13.163994 2861.312455 4.500323
301 9 -176.490274 24.018925 2870.136751 3.984297
302 9 -168.269386 6.132790 2867.115662 4.846105
303 9 -173.731665 27.870545 2859.147210 3.921103
304 9 -142.239144 -27.657777 2884.675640 4.277348
305 9 -139.191186 -24.550201 2876.765044 4.742729
306 9 -140.556636 -16.104497 2877.639460 3.838558
307 9 -140.053684 -15.175847 2871.034643 2.815991
308 9 -146.407400 -11.191631 2882.507818 5.167592
309 9 -141.737604 -19.149704 2864.993098 4.535872
310 10 -529.895001 -56.472861 3164.497032 6.217966
311 10 -531.893952 -65.754477 3167.570116 3.751446
312 10 -535.543663 -49.575938 3164.964148 2.643942
313 10 -532.704792 -46.771240 3169.565532 3.394498
314 10 -537.468088 -44.608868 3166.712936 2.518258
315 10 -532.230604 -68.859958 3173.305725 2.748967
316 10 -529.943567 -72.630467 3169.720985 2.893739
317 10 -529.229731 -36.419579 3176.128362 4.522354
318 10 -526.580974 -28.550472 3172.130545 4.683715
319 10 -526.222194 -41.535588 3177.642645 1.584621
320 10 -530.547722 -43.742130 3176.977014 2.905728
321 10 -528.474771 -47.283378 3173.580053 2.405757
322 10 -527.789808 -20.020050 3170.038890 4.125614
323 10 -538.929042 -23.500298 3161.693418 5.481571
324 10 -542.900605 -16.253156 3157.982125 3.568521
325 10 -548.127301 -25.888814 3164.915683 4.511594
326 10 -532.775624 -29.077480 3166.185726 3.871543
327 10 -533.540485 -13.296151 3158.737062 6.184046
328 10 -525.621571 -17.437190 3152.707266 4.578842
329 10 -529.256948 -68.933275 3178.806628 3.458454
330 10 -535.162705 -68.396927 3180.592424 2.728476
331 10 -539.903034 -64.322272 3176.941477 4.500323
332 10 -530.094506 -76.279671 3177.836568 3.984297
333 10 -521.414208 -69.949015 3181.382434 4.846105
334 10 -517.390049 -62.408289 3183.603549 3.921103
335 10 -529.153239 -73.373476 3196.146435 4.277348
336 10 -528.692010 -70.260574 3187.683474 4.742729
337 10 -533.812734 -79.818935 3194.300271 3.838558
338 10 -523.244835 -65.026860 3186.982763 2.815991
339 10 -526.852808 -85.016969 3196.939744 5.167592
340 10 -526.838226 -91.534124 3189.686733 4.535872
341 11 -82.326083 -193.368410 3455.044586 6.217966
342 11 -86.692084 -184.988495 3458.254433 3.751446
343 11 -77.992664 -199.196930 3460.242531 2.643942
344 11 -81.820307 -180.376260 3455.762874 3.394498
345 11 -77.613884 -178.926924 3459.696799 2.518258
346 11 -80.218821 -176.227392 3451.441136 2.748967
347 11 -78.616495 -173.802760 3458.250858 2.893739
348 11 -91.130272 -161.252913 3465.297361 4.522354
349 11 -86.109298 -168.972781 3465.636113 4.683715
350 11 -96.880015 -160.130853 3463.455131 1.584621
351 11 -80.395885 -173.703230 3463.785972 2.905728
352 11 -96.873093 -157.015942 3460.918369 2.405757
353 11 -92.934215 -151.767012 3461.107457 4.125614
354 11 -90.739537 -201.735473 3457.575000 5.481571
355 11 -84.042275 -206.821540 3460.943483 3.568521
356 11 -85.353100 -202.032498 3449.070937 4.511594
357 11 -77.667233 -208.184276 3457.241137 3.871543
358 11 -90.819993 -207.811947 3467.912413 6.184046
359 11 -93.065792 -192.717080 3453.635238 4.578842
360 11 -95.653923 -204.384358 3475.622532 3.458454
361 11 -100.560720 -201.474715 3473.211721 2.728476
362 11 -106.946466 -201.300556 3476.627922 4.500323
363 11 -111.821880 -195.051301 3479.829390 3.984297
364 11 -118.788260 -197.432963 3474.880176 4.846105
365 11 -97.034977 -202.917749 3482.789521 3.921103
366 11 -82.902136 -145.683104 3472.193996 4.277348
367 11 -80.542832 -153.551742 3475.941370 4.742729
368 11 -87.450908 -148.999981 3466.295009 3.838558
369 11 -73.191462 -154.696585 3477.530411 2.815991
370 11 -84.377412 -157.695213 3484.123242 5.167592
371 11 -90.120756 -140.576686 3471.754941 4.535872
372 12 -401.996078 -189.807220 3747.593496 6.217966
373 12 -396.413244 -185.697282 3754.771827 3.751446
374 12 -403.514488 -186.094035 3739.602535 2.643942
375 12 -401.680407 -182.291514 3758.295389 3.394498
376 12 -402.382952 -176.637742 3756.608102 2.518258
377 12 -404.781453 -182.091769 3736.157489 2.748967
378 12 -399.135285 -176.211327 3760.968392 2.893739
379 12 -398.313794 -178.173040 3771.644483 4.522354
380 12 -394.304399 -185.986128 3774.437636 4.683715
381 12 -390.138194 -188.030006 3778.735308 1.584621
382 12 -401.802168 -174.800662 3765.975215 2.905728
383 12 -391.622719 -191.317210 3780.455546 2.405757
384 12 -405.111915 -170.099149 3770.118887 4.125614
385 12 -392.086775 -198.103680 3734.803331 5.481571
386 12 -391.584667 -189.854124 3738.512885 3.568521
387 12 -399.445847 -194.293263 3729.161895 4.511594
388 12 -397.253761 -184.973768 3737.991669 3.871543
389 12 -400.082093 -205.703100 3738.723795 6.184046
390 12 -382.458007 -197.176811 3731.720396 4.578842
391 12 -407.158780 -163.161918 3720.836364 3.458454
392 12 -409.191889 -168.980108 3721.444493 2.728476
393 12 -404.716261 -174.390646 3723.268681 4.500323
394 12 -403.975981 -179.717285 3729.885515 3.984297
395 12 -396.561819 -183.420699 3726.768627 4.846105
396 12 -388.456108 -182.465484 3723.521132 3.921103
397 12 -389.498683 -199.343730 3790.576591 4.277348
398 12 -390.444477 -199.759283 3781.606787 4.742729
399 12 -395.724261 -206.565096 3780.887258 3.838558
400 12 -392.637713 -193.684243 3793.547073 2.815991
401 12 -389.615041 -199.205877 3771.708644 5.167592
402 12 -396.192685 -192.783889 3768.431064 4.535872
403 13 133.313823 18.774464 4088.958627 6.217966
404 13 131.928460 17.993101 4098.810444 3.751446
405 13 141.204748 18.260960 4084.817564 2.643942
406 13 139.372078 22.256839 4080.592926 3.394498
407 13 131.294597 23.533030 4101.801770 2.518258
408 13 130.138446 28.635352 4100.977597 2.748967
409 13 137.361494 24.550094 4075.055094 2.893739
410 13 153.279000 15.897598 4074.416404 4.522354
411 13 154.160723 15.974686 4065.243731 4.683715
412 13 151.353311 18.399172 4060.122045 1.584621
413 13 157.038968 15.769427 4080.881010 2.905728
414 13 152.877253 15.782592 4084.220020 2.405757
415 13 147.790345 19.882809 4084.661282 4.125614
416 13 141.560073 19.050571 4051.981262 5.481571
417 13 148.690821 24.609686 4051.418451 3.568521
418 13 136.531510 26.769295 4047.890376 4.511594
419 13 148.877436 15.204615 4056.414238 3.871543
420 13 146.620928 33.753464 4054.242103 6.184046
421 13 136.799861 15.107279 4060.026132 4.578842
422 13 151.560688 19.985110 4046.904410 3.458454
423 13 148.522655 14.831453 4045.302890 2.728476
424 13 150.822200 8.294427 4047.583108 4.500323
425 13 153.896993 21.334854 4039.899329 3.984297
426 13 151.331852 2.080457 4040.602437 4.846105
427 13 161.692216 20.615440 4038.645441 3.921103
428 13 173.224420 14.504054 4039.583977 4.277348
429 13 178.546586 15.913079 4046.740359 4.742729
430 13 181.654731 7.935930 4047.976180 3.838558
431 13 177.974751 2.513122 4049.205524 2.815991
432 13 183.490517 24.116950 4049.450460 5.167592
433 13 169.794533 22.033709 4036.474083 4.535872
434 14 32.375928 136.445450 4377.123873 6.217966
435 14 27.426748 132.915351 4385.037916 3.751446
436 14 28.826450 140.118134 4369.844660 2.643942
437 14 25.764637 139.145233 4388.162610 3.394498
438 14 22.716124 130.555985 4388.502141 2.518258
439 14 28.509892 144.963130 4367.430593 2.748967
440 14 24.737525 131.273786 4393.509946 2.893739
441 14 36.871373 158.952930 4368.856405 4.522354
442 14 31.874824 151.843533 4371.924347 4.683715
443 14 29.303274 149.611544 4377.226995 1.584621
444 14 36.750908 165.269200 4364.877001 2.905728
445 14 36.233646 169.562002 4367.994396 2.405757
446 14 26.901955 144.944948 4374.847290 4.125614
447 14 40.006126 120.044805 4381.189262 5.481571
448 14 42.409190 111.317866 4380.823353 3.568521
449 14 34.298173 117.673728 4373.212333 4.511594
450 14 40.488175 118.978231 4390.483816 3.871543
451 14 38.921406 130.676333 4385.977254 6.184046
452 14 34.892569 109.243520 4378.336584 4.578842
453 14 39.489364 105.872984 4366.318996 3.458454
454 14 36.384515 106.724456 4371.609516 2.728476
455 14 30.677375 102.524026 4373.309547 4.500323
456 14 43.305737 111.167015 4369.943448 3.984297
457 14 45.096501 103.796577 4360.441107 4.846105
458 14 48.954579 110.850100 4356.816590 3.921103
459 14 33.957838 162.964960 4358.612786 4.277348
460 14 35.884055 159.698880 4350.418458 4.742729
461 14 36.927798 151.333050 4352.178321 3.838558
462 14 38.439718 148.036364 4357.800228 2.815991
463 14 32.752000 162.745851 4341.492817 5.167592
464 14 25.629854 169.306141 4342.492293 4.535872
465 15 528.873554 456.210545 4678.558877 6.217966
466 15 529.392711 457.611506 4688.425784 3.751446
467 15 522.334994 459.077400 4673.224141 2.643942
468 15 536.077949 454.973346 4689.080321 3.394498
469 15 517.421324 458.719271 4674.904286 2.518258
470 15 518.971417 462.773753 4671.129745 2.748967
471 15 538.571013 459.350628 4692.872738 2.893739
472 15 529.403036 444.753685 4664.236377 4.522354
473 15 530.105871 446.699585 4673.216398 4.683715
474 15 527.737253 439.626296 4661.254631 1.584621
475 15 531.086239 444.632605 4656.969316 2.905728
476 15 535.327616 447.374969 4655.168619 2.405757
477 15 525.718057 445.148810 4652.364170 4.125614
478 15 529.722205 442.143637 4644.149681 5.481571
479 15 527.798918 433.980779 4647.575581 3.568521
480 15 539.298971 439.645866 4645.891736 4.511594
481 15 526.750324 444.481710 4635.549967 3.871543
482 15 518.007906 442.294047 4645.300491 6.184046
483 15 516.457406 452.986507 4645.472196 4.578842
484 15 540.821313 484.821572 4678.526873 3.458454
485 15 536.108163 481.411782 4676.402196 2.728476
486 15 534.755010 474.766889 4678.940178 4.500323
487 15 528.366524 471.172947 4683.370406 3.984297
488 15 533.184260 465.415465 4688.083924 4.846105
489 15 545.204131 479.559278 4675.699637 3.921103
490 15 535.616361 426.967706 4635.212207 4.277348
491 15 528.820619 430.300053 4640.135412 4.742729
492 15 529.452264 425.510829 4647.268339 3.838558
493 15 523.971919 421.676961 4647.280356 2.815991
494 15 536.498454 425.859793 4652.942335 5.167592
495 15 528.128126 426.889983 4630.541394 4.535872
496 16 88.546514 -434.677074 4952.695140 6.217966
497 16 97.956938 -437.951282 4953.253293 3.751446
498 16 84.119715 -432.475206 4945.303643 2.643942
499 16 101.345586 -431.723387 4951.995134 3.394498
500 16 103.122079 -432.174112 4946.339687 2.518258
501 16 104.311479 -426.327184 4952.343870 2.748967
502 16 108.105368 -431.078552 4948.268734 2.893739
503 16 71.149845 -434.873556 4956.292072 4.522354
504 16 79.243468 -439.278431 4956.184121 4.683715
505 16 68.729924 -430.677219 4960.022090 1.584621
506 16 84.533151 -444.210695 4953.814100 2.905728
507 16 84.803990 -448.412161 4957.138644 2.405757
508 16 65.984404 -427.907392 4955.707177 4.125614
509 16 117.635463 -418.489174 4959.256878 5.481571
510 16 112.423477 -414.750997 4952.859276 3.568521
511 16 111.841234 -426.591279 4958.335747 4.511594
512 16 110.653859 -418.994810 4946.994915 3.871543
513 16 116.769510 -432.421107 4950.815416 6.184046
514 16 125.113402 -436.286709 4956.472847 4.578842
515 16 74.569930 -448.245303 4975.375368 3.458454
516 16 78.197680 -451.302019 4979.356651 2.728476
517 16 69.765999 -444.055583 4970.489222 4.500323
518 16 64.288964 -437.491471 4970.614935 3.984297
519 16 69.146389 -431.335677 4966.466866 4.846105
520 16 80.801103 -445.209935 4978.617464 3.921103
521 16 54.202125 -437.897391 4974.554747 4.277348
522 16 61.404524 -440.557360 4979.306021 4.742729
523 16 50.707685 -445.286789 4974.362515 3.838558
524 16 67.251874 -435.788068 4978.529321 2.815991
525 16 45.173406 -437.792316 4971.531963 5.167592
526 16 65.100868 -448.702900 4976.697026 4.535872
527 17 592.695611 295.097766 5277.688798 6.217966
528 17 589.925554 287.660342 5283.738556 3.751446
529 17 594.798092 294.181256 5269.059760 2.643942
530 17 583.878737 285.627422 5280.378362 3.394498
531 17 592.760645 291.740325 5264.945619 2.518258
532 17 591.418326 286.670252 5264.055308 2.748967
533 17 582.167802 279.826307 5282.133751 2.893739
534 17 602.793887 293.385486 5246.404731 4.522354
535 17 595.576339 289.013765 5250.108291 4.683715
536 17 589.517603 289.869942 5251.529635 1.584621
537 17 605.944333 300.024967 5244.992818 2.905728
538 17 587.169884 292.389939 5253.608526 2.405757
539 17 588.126287 287.676387 5258.056586 4.125614
540 17 612.850988 281.898069 5242.579241 5.481571
541 17 617.177066 288.102817 5247.564642 3.568521
542 17 604.842775 284.658396 5248.060747 4.511594
543 17 613.050986 272.753653 5240.534121 3.871543
544 17 616.604023 287.860724 5233.198994 6.184046
545 17 616.516061 284.121930 5254.682655 4.578842
546 17 -624.427982 304.600611 5253.731803 3.458454
547 17 -624.464951 310.430000 5255.822629 2.728476
548 17 -624.538041 297.285838 5250.407131 4.500323
549 17 624.204659 291.240534 5247.760579 3.984297
550 17 625.020775 292.152034 5238.935422 4.846105
551 17 -626.292266 283.848196 5237.860637 3.921103
552 17 623.610480 293.361080 5220.514309 4.277348
553 17 619.094406 285.950171 5218.022706 4.742729
554 17 618.766009 281.669420 5225.508988 3.838558
555 17 620.296222 298.912972 5217.536457 2.815991
556 17 614.898972 275.920665 5219.679180 5.167592
557 17 624.276497 295.390978 5211.895199 4.535872
558 18 367.984103 113.845923 5557.809962 6.217966
559 18 370.051627 121.202826 5551.392066 3.751446
560 18 365.545887 118.589421 5547.609684 2.643942
561 18 366.066203 107.388545 5564.765189 3.394498
562 18 374.758739 120.883653 5547.179890 2.518258
563 18 365.796992 109.409833 5570.568748 2.748967
564 18 363.808159 113.940181 5573.309299 2.893739
565 18 368.463080 131.659106 5564.762777 4.522354
566 18 370.109145 140.709357 5564.210776 4.683715
567 18 365.546027 128.222056 5568.926494 1.584621
568 18 368.572019 148.197313 5564.377479 2.905728
569 18 366.037956 150.158264 5568.657149 2.405757
570 18 367.645018 123.634775 5561.416864 4.125614
571 18 385.754045 103.992732 5551.393171 5.481571
572 18 391.703653 105.282074 5558.101960 3.568521
573 18 391.652874 110.112358 5546.061247 4.511594
574 18 377.406020 103.116399 5547.227429 3.871543
575 18 385.216750 92.373131 5553.200283 6.184046
576 18 371.766508 104.741999 5553.349840 4.578842
577 18 402.855788 109.426792 5554.823818 3.458454
578 18 399.903218 107.614704 5549.690266 2.728476
579 18 395.816680 101.598787 5549.626616 4.500323
580 18 392.921523 98.259384 5542.362855 3.984297
581 18 396.370637 90.133342 5543.240515 4.846105
582 18 399.545374 113.154786 5545.928194 3.921103
583 18 401.379414 88.197026 5530.212379 4.277348
584 18 403.041234 84.143603 5538.107486 4.742729
585 18 397.433215 77.634301 5537.879902 3.838558
586 18 396.113685 77.829183 5544.441562 2.815991
587 18 399.556886 96.771587 5533.902892 5.167592
588 18 401.131251 101.448389 5542.298448 4.535872
589 19 -142.177021 567.335831 5845.136314 6.217966
590 19 -140.577571 563.556294 5836.039890 3.751446
591 19 -146.850460 563.344436 5851.610999 2.643942
592 19 -142.726541 556.771470 5836.986668 3.394498
593 19 -141.009442 560.288949 5830.633503 2.518258
594 19 -145.890472 560.781970 5828.669522 2.748967
595 19 -148.767522 555.956380 5829.615933 2.893739
596 19 -131.903204 577.501171 5836.604686 4.522354
597 19 -124.371705 580.790916 5832.436305 4.683715
598 19 -135.794378 572.976084 5835.154356 1.584621
599 19 -120.235624 584.998588 5827.603602 2.905728
600 19 -121.280063 584.502804 5822.393812 2.405757