ITEM: TIMESTEP
1
ITEM: NUMBER OF ATOMS
2000
ITEM: BOX BOUNDS pp pp pp
-7.500e+01 7.500e+01
-7.500e+01 7.500e+01
0 2.974e+02
ITEM: ATOMS id type x y z Radius
0 0 50.853468 -25.305058 8.256391 0.786628
1 0 51.151575 -24.303965 9.983861 1.230069
2 0 51.001703 -27.403678 8.692928 1.359473
3 0 49.227478 -23.122242 10.120674 1.015878
4 0 47.549407 -24.376721 11.445681 1.443330
5 0 52.177721 -28.655513 10.472478 1.101299
6 0 50.665049 -20.906109 10.019442 1.619212
7 0 51.997662 -21.835368 8.064041 0.917058
8 0 51.341002 -19.806449 6.271936 1.865721
9 0 53.858659 -21.185790 5.085481 1.227171
10 0 50.631681 -22.164502 3.478801 1.846090
11 0 48.373975 -18.817815 6.438836 1.251899
12 0 53.724603 -19.117660 2.210950 2.308759
13 0 47.794464 -18.888743 2.629002 2.541068
14 0 56.697352 -28.377592 8.671085 1.818398
15 0 54.195992 -28.961236 9.878445 1.016928
16 0 56.011903 -25.661329 7.716403 1.135939
17 0 53.050362 -29.241069 7.869875 1.291513
18 0 57.089688 -24.678143 9.512218 1.162362
19 0 59.483185 -26.416141 10.559330 1.965102
20 0 54.858746 -23.422542 10.794363 1.694993
21 0 47.826426 -21.270791 0.011594 0.722552
22 0 48.607955 -21.749681 -1.909195 1.403597
23 0 48.374946 -22.039071 1.338481 0.894783
24 0 51.689104 -23.251756 -1.425183 2.028097
25 0 53.326734 -25.078689 -3.208332 0.998053
26 0 47.032424 -23.186850 0.592999 1.016247
27 0 46.888783 -20.065927 -1.709126 1.000134
28 0 57.806347 -33.348340 9.329124 1.183911
29 0 58.838609 -31.572143 7.981298 1.270680
30 0 59.544813 -33.393096 5.971569 1.504761
31 0 59.089164 -29.606297 8.740262 0.847861
32 0 58.203540 -32.639079 3.534143 1.374191
33 0 60.447862 -29.277574 8.726468 0.547742
34 0 48.672262 -14.559767 5.855088 0.834508
35 0 47.519126 -15.731925 7.201981 1.288880
36 0 49.692593 -14.639288 9.109545 1.772127
37 0 49.912141 -15.839059 5.072520 1.107331
38 0 46.777634 -13.124512 5.394761 1.584007
39 0 49.119151 -15.385489 2.957491 1.183591
40 0 52.816259 -22.331301 -6.998385 1.126727
41 0 52.720173 -22.722897 -4.952210 0.956715
42 0 52.370382 -20.141384 -8.120300 1.362859
43 0 54.219633 -24.055058 -5.798958 1.211512
44 0 51.176869 -25.075836 -5.080223 1.849609
45 0 56.226401 -23.504174 -7.451316 1.419860
46 0 43.792628 -16.096649 0.141172 0.688098
47 0 43.864130 -15.050995 -1.350187 1.132897
48 0 44.955630 -17.454147 0.692172 1.174830
49 0 43.147106 -17.254795 -3.418460 1.967670
50 0 44.540761 -13.139049 -1.960202 0.974519
51 0 42.982911 -18.387435 -6.364205 1.181103
52 0 46.937271 -10.459541 5.082378 1.097883
53 0 46.535759 -11.358502 2.774988 1.408274
54 0 46.637999 -10.162366 0.615241 1.049583
55 0 47.262205 -8.086015 0.769299 1.117557
56 0 44.862640 -10.161510 -1.044839 1.376823
57 0 48.480859 -8.168439 4.580048 1.684153
58 0 58.380345 -24.253537 -6.615273 0.651836
59 0 59.219446 -22.402485 -7.973123 1.789948
60 0 59.585194 -24.134972 -5.387530 1.066089
61 0 61.139320 -25.760200 -7.639635 2.087659
62 0 62.637121 -24.628816 -4.353767 1.678853
63 0 64.603084 -22.577669 -5.744898 1.468507
64 0 64.969471 -20.207934 12.384354 1.002269
65 0 63.791270 -21.932437 11.569160 1.237501
66 0 64.347568 -18.412558 12.679789 0.906289
67 0 61.436321 -22.560013 13.224461 1.681472
68 0 59.301940 -23.836070 12.093153 1.029783
69 0 64.997656 -20.085887 9.817111 1.561066
70 0 43.826713 -21.896317 -5.748810 1.179205
71 0 41.674077 -22.149879 -6.781423 1.219318
72 0 41.077239 -20.331733 -4.357476 1.849871
73 0 41.504874 -20.743371 -8.578056 1.056017
74 0 38.710829 -23.437311 -6.380494 2.028730
75 0 37.134497 -21.739266 -2.911071 2.121307
76 0 43.486693 -10.560390 4.582075 2.197444
77 0 41.794829 -7.269565 5.662010 1.653338
78 0 42.428585 -10.560296 7.727947 1.114493
79 0 41.579557 -12.657460 6.464789 1.200339
80 0 39.057445 -11.121194 4.630233 2.236624
81 0 40.539352 -7.184444 2.180033 2.037939
82 0 36.452598 -28.518646 4.007661 1.314264
83 0 36.641974 -25.610358 3.388349 1.662280
84 0 35.557758 -26.642141 0.730665 1.372795
85 0 38.179714 -29.585523 2.534646 1.174823
86 0 37.407748 -23.958471 0.377795 1.847133
87 0 34.157737 -23.190488 3.966908 1.848230
88 0 42.121603 -18.414467 -10.649036 1.369289
89 0 43.466609 -17.904773 -8.593738 1.136807
90 0 41.974766 -18.831992 -12.811989 0.830260
91 0 39.698979 -20.317620 -10.964485 1.703824
92 0 39.219088 -21.966559 -12.986252 0.930169
93 0 39.011213 -23.263042 -12.092762 0.651753
94 0 63.232657 -28.970142 -7.661189 1.724253
95 0 64.442885 -28.452617 -4.334498 1.849792
96 0 64.887104 -26.595049 -7.799567 1.150606
97 0 66.857994 -26.365145 -5.604876 1.558742
98 0 61.634261 -29.639819 -3.975394 1.195084
99 0 64.598337 -30.191898 -1.928016 1.099875
100 1 63.859487 41.907131 11.062930 0.786628
101 1 65.834499 41.615454 11.362032 1.230069
102 1 63.391556 41.063495 9.124622 1.359473
103 1 67.303261 39.896748 11.537205 1.015878
104 1 66.980149 41.521805 13.780855 1.443330
105 1 64.976863 40.988271 7.234411 1.101299
106 1 64.002518 43.547029 7.174810 1.619212
107 1 63.382454 46.854831 16.390611 0.917058
108 1 62.588809 44.191255 16.203937 1.865721
109 1 65.432692 44.151955 17.457954 1.227171
110 1 63.865248 41.608139 18.555242 1.846090
111 1 61.607680 42.204282 13.981152 1.251899
112 1 64.195346 39.312444 15.060536 2.308759
113 1 59.551119 39.257028 16.553351 2.541068
114 1 70.018440 47.049178 12.263652 1.818398
115 1 71.026567 47.119949 9.611515 1.016928
116 1 68.541513 49.623804 12.013287 1.135939
117 1 72.039756 46.786430 14.621131 1.291513
118 1 70.332121 46.861592 16.393477 1.162362
119 1 68.131152 43.862334 11.365584 1.965102
120 1 70.686870 43.085810 8.811220 1.694993
121 1 74.843504 47.051103 11.528309 0.722552
122 1 74.269778 48.129951 9.785759 1.403597
123 1 73.722416 46.630695 12.638163 0.894783
124 1 73.829134 49.394102 13.600603 2.028097
125 1 74.790280 51.889707 15.074301 0.998053
126 1 73.326132 44.863848 11.986640 1.016247
127 1 72.922823 52.306091 15.714075 1.000134
128 1 66.028934 52.489524 10.901921 1.183911
129 1 68.005223 52.300518 12.349551 1.270680
130 1 67.035069 54.703184 9.737230 1.504761
131 1 67.176513 57.007899 10.290077 0.847861
132 1 66.116418 49.965244 11.367714 1.374191
133 1 66.284041 56.819293 9.231518 0.547742
134 1 67.336492 55.377375 5.164390 0.834508
135 1 66.635386 53.389602 5.438266 1.288880
136 1 68.967889 53.356113 7.445761 1.772127
137 1 71.795364 53.418708 6.827698 1.107331
138 1 67.876293 54.225600 2.961429 1.584007
139 1 72.359958 55.609605 6.391061 1.183591
140 1 -72.069424 50.054677 18.937957 1.126727
141 1 -73.734375 48.910266 18.420579 0.956715
142 1 -73.943234 48.759896 16.103109 1.362859
143 1 -70.622683 51.413848 17.667689 1.211512
144 1 -72.851713 46.832336 20.116118 1.849609
145 1 -71.852328 44.057725 18.633123 1.419860
146 1 60.751072 45.823012 23.662501 0.688098
147 1 62.184555 45.304667 24.662051 1.132897
148 1 59.840476 47.451043 23.642085 1.174830
149 1 62.994113 44.743540 21.704529 1.967670
150 1 65.053892 44.467196 19.615823 0.974519
151 1 59.044580 47.650113 21.430291 1.181103
152 1 67.850435 49.902477 0.386090 1.097883
153 1 67.540000 47.797759 -0.943264 1.408274
154 1 69.995590 50.102576 0.504825 1.049583
155 1 65.497714 47.922872 -2.455504 1.117557
156 1 67.026861 52.189359 0.966607 1.376823
157 1 64.995837 46.020850 -0.423127 1.684153
158 1 74.681063 43.705511 24.477011 0.651836
159 1 -74.737133 41.476121 25.292833 1.789948
160 1 -74.053762 44.534179 25.319408 1.066089
161 1 -73.766249 43.607420 22.191404 2.087659
162 1 73.045290 44.205659 26.077704 1.678853
163 1 73.198376 43.740744 20.280238 1.468507
164 1 59.181604 39.064212 13.004123 1.002269
165 1 60.718574 40.154861 11.789703 1.237501
166 1 57.663404 38.085218 12.359931 0.906289
167 1 58.999579 36.025998 11.513948 1.681472
168 1 57.082951 34.629795 10.183379 1.029783
169 1 56.022080 34.136512 12.520907 1.561066
170 1 58.033225 40.511931 19.725174 1.179205
171 1 58.890857 39.428491 21.688602 1.219318
172 1 56.584692 37.840665 19.652967 1.849871
173 1 54.861863 36.426093 21.524786 1.056017
174 1 55.090429 41.731041 19.316370 2.028730
175 1 52.847209 37.381223 18.364594 2.121307
176 1 64.212504 33.348346 23.885137 2.197444
177 1 60.459042 33.926299 24.545202 1.653338
178 1 62.415706 34.219079 21.201545 1.114493
179 1 64.668310 36.725099 23.947087 1.200339
180 1 61.405149 37.250528 22.716745 2.236624
181 1 60.662499 36.983861 26.932856 2.037939
182 1 -74.514773 52.266449 2.771060 1.314264
183 1 -73.587449 49.608504 3.747247 1.662280
184 1 -73.552864 51.178260 6.365303 1.372795
185 1 74.626957 47.507515 4.471955 1.174823
186 1 -70.458418 50.732532 2.587844 1.847133
187 1 -73.706821 48.063630 7.217282 1.848230
188 1 72.326135 53.510415 -2.282551 1.369289
189 1 70.275678 52.293299 -1.503232 1.136807
190 1 68.846902 52.044699 -2.851912 0.830260
191 1 69.927917 49.745480 -2.907508 1.703824
192 1 67.409344 48.903330 -3.003849 0.930169
193 1 71.409915 55.324984 -2.330283 0.651753
194 1 71.002770 31.804540 22.918451 1.724253
195 1 69.511030 33.133311 19.950549 1.849792
196 1 72.608475 30.789664 20.750490 1.150606
197 1 67.811145 32.261164 23.568937 1.558742
198 1 70.911378 31.159377 18.085983 1.195084
199 1 68.435520 34.570043 24.754725 1.099875
200 2 -7.565083 -43.749356 23.020487 0.786628
201 2 -6.420683 -44.520456 24.493906 1.230069
202 2 -7.414107 -41.599387 23.165474 1.359473
203 2 -7.148873 -44.939509 26.581903 1.015878
204 2 -5.003207 -40.294357 22.559516 1.443330
205 2 -6.254136 -46.645027 23.519452 1.101299
206 2 -6.182304 -38.214968 24.517882 1.619212
207 2 -10.796590 -39.598122 27.319066 0.917058
208 2 -11.293440 -42.306121 27.742429 1.865721
209 2 -13.633099 -41.145106 26.037404 1.227171
210 2 -12.796638 -43.993754 24.753939 1.846090
211 2 -15.724668 -44.413115 25.751055 1.251899
212 2 -10.999519 -40.819045 22.733874 2.308759
213 2 -16.394377 -41.329739 23.463369 2.541068
214 2 -3.364258 -46.107139 23.480538 1.818398
215 2 -0.870351 -44.833390 23.942222 1.016928
216 2 -4.395856 -44.190491 21.477572 1.135939
217 2 -4.942325 -48.701549 22.786730 1.291513
218 2 -5.333875 -49.151672 25.184595 1.162362
219 2 -2.907412 -42.845519 25.395976 1.965102
220 2 0.362300 -43.675160 21.815515 1.694993
221 2 -15.177310 -47.425309 28.335827 0.722552
222 2 -15.034639 -45.500544 29.232754 1.403597
223 2 -15.554883 -47.580233 26.764574 0.894783
224 2 -14.661216 -47.945399 31.660302 2.028097
225 2 -12.911294 -44.508610 28.687569 0.998053
226 2 -15.168413 -48.984531 34.495441 1.016247
227 2 -14.415353 -43.206026 28.476849 1.000134
228 2 -4.265055 -36.331086 23.695084 1.183911
229 2 -4.625907 -34.009584 22.975717 1.270680
230 2 -4.310306 -33.048593 25.582675 1.504761
231 2 -4.758533 -34.323776 20.871994 0.847861
232 2 -3.560984 -37.595140 25.833289 1.374191
233 2 -6.101102 -33.920989 20.757304 0.547742
234 2 -15.665657 -37.806392 22.781555 0.834508
235 2 -17.309668 -36.624675 23.428525 1.288880
236 2 -18.664116 -38.327158 21.233464 1.772127
237 2 -18.123795 -40.986992 20.254239 1.107331
238 2 -21.907768 -39.100651 20.812957 1.584007
239 2 -18.876956 -34.687262 23.478330 1.183591
240 2 -4.407957 -49.993595 17.728206 1.126727
241 2 -4.778343 -47.971196 18.077679 0.956715
242 2 -5.231438 -51.300750 15.746627 1.362859
243 2 -4.249018 -46.860043 16.274319 1.211512
244 2 -3.100004 -49.067550 20.243711 1.849609
245 2 -2.599063 -52.219674 15.502125 1.419860
246 2 -17.677236 -49.865176 25.424512 0.688098
247 2 -17.690072 -50.067493 23.613004 1.132897
248 2 -18.349306 -50.995124 26.750722 1.174830
249 2 -21.414365 -51.190355 25.951799 1.967670
250 2 -24.053692 -50.715547 27.210383 0.974519
251 2 -16.830861 -49.213601 27.079374 1.181103
252 2 3.035145 -43.222784 20.787959 1.097883
253 2 2.125520 -41.109504 21.787968 1.408274
254 2 3.439833 -42.661367 18.739368 1.049583
255 2 3.268944 -40.218365 23.881336 1.117557
256 2 2.858883 -42.125526 25.445576 1.376823
257 2 3.367359 -45.146455 25.304958 1.684153
258 2 -1.809149 -29.757928 27.311061 0.651836
259 2 -1.894854 -31.972805 28.341214 1.789948
260 2 -2.349381 -30.260164 25.756370 1.066089
261 2 -4.865472 -29.570560 27.628936 2.087659
262 2 -4.582952 -33.966199 29.352255 1.678853
263 2 -1.647376 -32.333727 24.457510 1.468507
264 2 -16.489395 -45.642113 36.584843 1.002269
265 2 -16.432504 -43.673172 35.514027 1.237501
266 2 -16.534326 -47.394500 35.813976 0.906289
267 2 -17.798927 -47.305293 33.550822 1.681472
268 2 -19.925438 -49.013396 33.488574 1.029783
269 2 -14.783179 -47.162703 37.784254 1.561066
270 2 0.772439 -30.627631 18.893716 1.179205
271 2 2.378816 -30.029162 20.574732 1.219318
272 2 -0.434251 -31.863700 21.399945 1.849871
273 2 0.519295 -34.198204 22.880741 1.056017
274 2 -1.673638 -32.811683 17.808729 2.028730
275 2 3.638539 -33.147886 20.397188 2.121307
276 2 -2.723224 -26.941083 32.203733 2.197444
277 2 -6.153477 -27.700147 30.617740 1.653338
278 2 -2.791983 -29.715430 30.374060 1.114493
279 2 -5.527806 -30.393801 31.416236 1.200339
280 2 -6.355787 -27.667550 34.685682 2.236624
281 2 -3.605280 -30.882578 35.477507 2.037939
282 2 -3.522315 -34.403427 38.004145 1.314264
283 2 -1.342452 -36.349237 37.421421 1.662280
284 2 -3.182910 -38.132385 39.063409 1.372795
285 2 -3.517142 -34.119135 35.522464 1.174823
286 2 -3.179893 -36.107148 41.574564 1.847133
287 2 -4.439294 -32.622308 41.181696 1.848230
288 2 -1.318928 -29.987753 38.256575 1.369289
289 2 -3.252815 -29.654152 39.819225 1.136807
290 2 -3.427669 -27.838183 40.601691 0.830260
291 2 -5.612454 -28.941260 38.369226 1.703824
292 2 -7.644699 -30.605199 37.978716 0.930169
293 2 -7.803958 -31.898791 38.901609 0.651753
294 2 6.284223 -32.524443 23.155339 1.724253
295 2 7.593579 -31.189244 26.205289 1.849792
296 2 6.655638 -28.770803 24.689301 1.150606
297 2 10.480937 -31.729943 24.456557 1.558742
298 2 7.393698 -28.208500 22.531201 1.195084
299 2 9.114277 -32.047931 28.589855 1.099875
300 3 50.677170 -27.212204 39.921826 0.786628
301 3 51.476294 -28.289094 38.412881 1.230069
302 3 52.223516 -25.899842 40.653822 1.359473
303 3 51.092515 -23.973480 41.528446 1.015878
304 3 52.047465 -24.798159 43.658125 1.443330
305 3 53.639271 -27.702607 37.752207 1.101299
306 3 52.743247 -21.902207 42.826713 1.619212
307 3 48.383311 -31.550783 42.193730 0.917058
308 3 49.253694 -29.138766 41.105629 1.865721
309 3 50.186339 -29.270320 44.080566 1.227171
310 3 46.018345 -29.607080 42.936910 1.846090
311 3 49.980551 -32.869497 42.853650 1.251899
312 3 48.453858 -32.978947 39.290021 2.308759
313 3 43.915875 -31.249106 39.366012 2.541068
314 3 45.513514 -25.564408 36.538797 1.818398
315 3 43.089471 -26.979404 36.118131 1.016928
316 3 47.345178 -27.781509 35.836220 1.135939
317 3 45.377649 -24.154833 39.314171 1.291513
318 3 43.508014 -29.117699 36.357612 1.162362
319 3 41.014426 -25.127256 37.252667 1.965102
320 3 40.583619 -26.932679 40.442564 1.694993
321 3 48.670754 -36.408931 36.095438 0.722552
322 3 50.601497 -37.044041 35.464233 1.403597
323 3 47.335033 -36.957566 35.358015 0.894783
324 3 50.949930 -33.618322 35.752486 2.028097
325 3 53.318591 -31.872656 34.948770 0.998053
326 3 48.265183 -37.509760 33.768894 1.016247
327 3 50.829677 -39.367300 36.100254 1.000134
328 3 38.065440 -29.846086 40.422846 1.183911
329 3 37.795794 -27.575375 41.321866 1.270680
330 3 37.910836 -30.875575 42.925363 1.504761
331 3 37.285252 -33.117346 42.507939 0.847861
332 3 38.877329 -28.619275 38.318890 1.374191
333 3 37.978874 -29.126554 36.683036 0.547742
334 3 54.044769 -32.638468 46.927020 0.834508
335 3 56.023292 -32.461776 47.683341 1.288880
336 3 53.438222 -30.522484 48.332288 1.772127
337 3 54.013559 -27.851353 49.303242 1.107331
338 3 50.635084 -29.392897 46.856526 1.584007
339 3 56.224413 -27.425965 48.836884 1.183591
340 3 53.798422 -34.799610 34.975651 1.126727
341 3 53.812773 -34.456976 37.032788 0.956715
342 3 55.349092 -33.741419 33.308637 1.362859
343 3 57.728801 -32.766278 33.551777 1.211512
344 3 56.036952 -35.508299 30.678644 1.849609
345 3 58.973359 -36.964932 30.706030 1.419860
346 3 52.464426 -34.693301 51.238060 0.688098
347 3 50.819357 -33.909480 51.193011 1.132897
348 3 53.279570 -35.796164 49.959413 1.174830
349 3 52.842742 -31.641718 51.867079 1.967670
350 3 54.608996 -29.319264 52.417831 0.974519
351 3 48.892151 -34.150964 52.465404 1.181103
352 3 52.020860 -39.519622 52.694157 1.097883
353 3 49.800990 -40.169123 51.722706 1.408274
354 3 49.237440 -40.655269 49.365120 1.049583
355 3 50.687435 -42.024310 48.497319 1.117557
356 3 53.374326 -37.986978 51.272825 1.376823
357 3 46.904253 -39.443424 50.164907 1.684153
358 3 60.070993 -28.588357 49.947085 0.651836
359 3 58.950797 -28.131914 47.823160 1.789948
360 3 59.707346 -27.063242 50.670221 1.066089
361 3 62.392434 -26.757163 49.013686 2.087659
362 3 61.154739 -23.483290 47.602409 1.678853
363 3 60.987989 -24.433019 44.597993 1.468507
364 3 39.782890 -25.348852 34.552669 1.002269
365 3 38.279769 -24.258762 35.809228 1.237501
366 3 39.635889 -27.139239 33.861774 0.906289
367 3 42.110898 -24.381556 33.604291 1.681472
368 3 43.693399 -22.171662 33.396519 1.029783
369 3 37.099016 -22.669593 33.806256 1.561066
370 3 34.359443 -33.998230 43.198988 1.179205
371 3 35.384625 -35.121509 41.341121 1.219318
372 3 37.413177 -35.593374 43.603477 1.849871
373 3 34.776956 -32.638755 41.455574 1.056017
374 3 33.113870 -37.220984 42.355980 2.028730
375 3 34.470127 -38.784751 45.965670 2.121307
376 3 49.705532 -31.298330 56.918959 2.197444
377 3 53.239128 -32.805026 56.599964 1.653338
378 3 52.794029 -30.704760 54.818609 1.114493
379 3 50.831791 -28.140767 56.239106 1.200339
380 3 52.679895 -28.999720 59.325193 2.236624
381 3 53.522413 -33.359383 60.262215 2.037939
382 3 54.333559 -38.033818 29.736267 1.314264
383 3 54.571136 -40.769358 30.892954 1.662280
384 3 53.022923 -39.357320 33.122927 1.372795
385 3 57.199310 -41.288852 31.907410 1.174823
386 3 51.190952 -38.192757 30.105205 1.847133
387 3 53.370664 -38.011023 26.713492 1.848230
388 3 31.698493 -33.120309 44.200669 1.369289
389 3 30.830810 -35.093833 42.917932 1.136807
390 3 32.236043 -30.981075 44.324491 0.830260
391 3 29.708187 -36.140994 45.338073 1.703824
392 3 33.151388 -32.011897 45.629075 0.930169
393 3 33.844196 -31.563966 44.264940 0.651753
394 3 63.469593 -33.172813 32.283000 1.724253
395 3 60.776972 -30.830161 32.035748 1.849792
396 3 61.416365 -31.579695 29.174269 1.150606
397 3 60.863935 -35.204215 32.214525 1.558742
398 3 59.687440 -33.010921 28.468666 1.195084
399 3 59.649813 -30.570678 28.198759 1.099875
400 4 -10.208913 58.755990 56.501313 0.786628
401 4 -8.938644 57.703150 57.664563 1.230069
402 4 -12.066528 58.924599 57.598291 1.359473
403 4 -8.209717 56.468533 55.910018 1.015878
404 4 -12.354928 61.252949 56.051364 1.443330
405 4 -6.726394 58.467625 57.682382 1.101299
406 4 -8.647347 55.325472 59.227183 1.619212
407 4 -4.780225 56.970319 60.805758 0.917058
408 4 -5.337499 54.381716 59.940925 1.865721
409 4 -6.306705 54.701238 62.893327 1.227171
410 4 -4.735082 52.038863 62.873320 1.846090
411 4 -5.481700 55.049159 65.228484 1.251899
412 4 -2.363669 56.355231 64.005860 2.308759
413 4 -7.129628 58.346094 63.421277 2.541068
414 4 -8.905142 49.290210 59.726722 1.818398
415 4 -7.419127 51.285108 61.093215 1.016928
416 4 -8.985608 47.378985 61.997854 1.135939
417 4 -8.565514 48.940080 63.817325 1.291513
418 4 -11.089461 50.588706 58.154194 1.162362
419 4 -7.240428 51.971224 57.628428 1.965102
420 4 -10.807231 46.322682 59.508289 1.694993
421 4 3.203066 59.977774 56.738538 0.722552
422 4 1.833159 61.249173 57.756603 1.403597
423 4 4.333466 59.151520 57.577786 0.894783
424 4 0.815300 59.423014 60.494581 2.028097
425 4 -1.899521 58.371880 61.400520 0.998053
426 4 -3.074792 58.387521 59.750795 1.016247
427 4 -2.831977 56.865890 58.441792 1.000134
428 4 0.479449 54.676479 65.200697 1.183911
429 4 1.760410 52.696664 65.891021 1.270680
430 4 3.438024 54.246205 67.515482 1.504761
431 4 1.455616 50.663944 65.304074 0.847861
432 4 -0.426604 50.655702 66.504390 1.374191
433 4 5.488779 54.424883 67.508853 0.547742
434 4 -8.948194 68.449650 59.919651 0.834508
435 4 -7.801134 67.734587 58.279306 1.288880
436 4 -9.094566 65.080276 59.143354 1.772127
437 4 -7.938764 63.278481 61.095229 1.107331
438 4 -11.437816 64.011397 56.946734 1.584007
439 4 -5.960633 64.472045 61.129366 1.183591
440 4 -14.137543 60.128964 60.180760 1.126727
441 4 -13.867015 61.736242 58.879650 0.956715
442 4 -13.991006 63.759851 60.028570 1.362859
443 4 -11.753232 64.966179 60.551476 1.211512
444 4 -17.142983 64.285845 59.503813 1.849609
445 4 -17.236964 67.497617 60.254064 1.419860
446 4 -6.972381 45.592535 65.342691 0.688098
447 4 -7.840979 46.626792 64.118555 1.132897
448 4 -7.615765 44.871789 66.947790 1.174830
449 4 -6.527741 47.411167 68.475197 1.967670
450 4 -5.890965 49.861240 70.031084 0.974519
451 4 -6.433030 43.354217 65.572984 1.181103
452 4 1.981176 58.681804 56.303804 1.097883
453 4 3.111062 58.816572 54.068052 1.408274
454 4 4.961630 57.466810 53.163602 1.049583
455 4 6.716614 57.822585 54.418438 1.117557
456 4 7.144040 58.421220 56.819549 1.376823
457 4 7.388359 56.998722 51.813843 1.684153
458 4 7.710517 58.373735 66.273962 0.651836
459 4 8.334978 60.410096 65.074994 1.789948
460 4 9.235929 57.589696 66.101783 1.066089
461 4 7.353900 56.962583 63.573400 2.087659
462 4 10.014221 57.783963 61.029016 1.678853
463 4 7.785284 59.391278 59.441376 1.468507
464 4 -17.345393 60.871768 56.738650 1.002269
465 4 -16.219575 61.478071 58.580263 1.237501
466 4 -16.614130 60.410446 55.024534 0.906289
467 4 -18.506053 60.970552 60.340617 1.681472
468 4 -17.937612 60.625004 62.993304 1.029783
469 4 -20.708181 61.977210 62.514501 1.561066
470 4 9.375609 60.705326 57.142059 1.179205
471 4 7.730769 62.393320 57.599881 1.219318
472 4 10.264752 64.050917 57.032856 1.849871
473 4 9.083499 66.350638 55.664855 1.056017
474 4 6.056234 65.210452 57.732868 2.028730
475 4 7.412928 61.003853 54.466356 2.121307
476 4 -13.640958 48.120526 57.489945 2.197444
477 4 -15.614864 44.967773 56.478989 1.653338
478 4 -17.269172 47.082134 57.197369 1.114493
479 4 -14.124350 45.504851 54.079186 1.200339
480 4 -16.951367 48.312370 54.082222 2.236624
481 4 -13.361302 50.641928 53.567858 2.037939
482 4 6.877389 64.421350 67.656962 1.314264
483 4 6.754918 66.868094 65.961087 1.662280
484 4 8.127369 63.562935 65.408853 1.372795
485 4 9.264843 68.200929 65.815028 1.174823
486 4 8.138459 67.975889 62.900097 1.847133
487 4 4.411542 69.423917 65.328411 1.848230
488 4 11.553726 58.157984 53.309719 1.369289
489 4 12.536516 56.459446 54.872465 1.136807
490 4 9.843411 58.902942 52.115642 0.830260
491 4 11.614064 61.248777 53.451034 1.703824
492 4 9.695607 62.995959 53.947533 0.930169
493 4 14.206551 56.450403 54.202012 0.651753
494 4 -13.893951 71.400628 63.375054 1.724253
495 4 -15.200852 69.058097 65.742314 1.849792
496 4 -15.619655 71.730785 67.048693 1.150606
497 4 -17.231934 68.729968 62.991230 1.558742
498 4 -16.088535 66.234989 63.302458 1.195084
499 4 -11.177021 70.647065 63.770743 1.099875
500 5 -49.735460 -31.187924 64.417597 0.786628
501 5 -49.224210 -31.693989 66.303791 1.230069
502 5 -51.366275 -29.793090 64.544773 1.359473
503 5 -51.529075 -28.910745 62.342327 1.015878
504 5 -48.096507 -29.706682 67.736380 1.443330
505 5 -49.563000 -28.430781 61.703085 1.101299
506 5 -49.648076 -31.616471 69.602462 1.619212
507 5 -54.006301 -35.310975 64.948353 0.917058
508 5 -54.127803 -33.646666 67.178750 1.865721
509 5 -52.917512 -31.831788 64.981747 1.227171
510 5 -51.390267 -35.893032 65.999670 1.846090
511 5 -50.828751 -36.594838 68.975051 1.251899
512 5 -54.166481 -38.687748 67.406367 2.308759
513 5 -53.865825 -36.312740 71.631848 2.541068
514 5 -46.616814 -32.660397 60.955784 1.818398
515 5 -47.181541 -35.390526 60.424145 1.016928
516 5 -48.801677 -31.514297 59.321361 1.135939
517 5 -49.990989 -30.955979 61.380391 1.291513
518 5 -43.953119 -33.687909 60.006835 1.162362
519 5 -47.612679 -28.672603 58.782297 1.965102
520 5 -47.051730 -32.446262 64.461725 1.694993
521 5 -42.482424 -31.723444 57.853430 0.722552
522 5 -40.520990 -32.545409 57.771553 1.403597
523 5 -43.572405 -32.061389 56.702279 0.894783
524 5 -41.290247 -32.285020 61.125970 2.028097
525 5 -42.670416 -33.465399 63.555174 0.998053
526 5 -43.753931 -33.959045 56.944570 1.016247
527 5 -42.392576 -31.023108 55.623106 1.000134
528 5 -46.508747 -29.540365 73.122260 1.183911
529 5 -48.409745 -29.893015 71.606040 1.270680
530 5 -44.864845 -29.085041 71.036064 1.504761
531 5 -49.316985 -28.927669 69.942263 0.847861
532 5 -47.497215 -28.654893 75.335815 1.374191
533 5 -49.091777 -27.849828 69.063770 0.547742
534 5 -48.851842 -35.491239 73.710194 0.834508
535 5 -49.282270 -36.817820 75.314162 1.288880
536 5 -51.039960 -34.474315 76.227440 1.772127
537 5 -50.833923 -38.652235 75.420714 1.107331
538 5 -52.379136 -32.928404 73.545989 1.584007
539 5 -49.061543 -37.902268 77.534964 1.183591
540 5 -44.900177 -34.373332 75.887759 1.126727
541 5 -45.843700 -33.743918 77.637907 0.956715
542 5 -46.730887 -35.583310 78.782803 1.362859
543 5 -48.709553 -34.447628 79.997926 1.211512
544 5 -46.199364 -36.688227 81.778028 1.849609
545 5 -47.392097 -34.924171 75.816707 1.419860
546 5 -43.156266 -28.115880 58.360065 0.688098
547 5 -43.801468 -27.181894 59.786263 1.132897
548 5 -44.024841 -28.651356 56.797581 1.174830
549 5 -44.481611 -25.825164 55.474858 1.967670
550 5 -43.815608 -24.401467 52.966145 0.974519
551 5 -45.654374 -30.362075 56.970736 1.181103
552 5 -54.567787 -42.762162 72.836284 1.097883
553 5 -53.207764 -44.027400 71.150194 1.408274
554 5 -53.074161 -41.588505 73.880203 1.049583
555 5 -53.087230 -39.708698 72.782281 1.117557
556 5 -50.605268 -45.033211 71.206276 1.376823
557 5 -53.698490 -45.503542 68.451107 1.684153
558 5 -49.827985 -28.051365 80.305831 0.651836
559 5 -49.105249 -27.883465 77.976946 1.789948
560 5 -50.846508 -29.431484 80.072440 1.066089
561 5 -52.444784 -26.711180 79.595416 2.087659
562 5 -50.375640 -23.549213 80.012714 1.678853
563 5 -50.660420 -29.316661 82.607677 1.468507
564 5 -43.847895 -44.089431 79.482452 1.002269
565 5 -44.145816 -46.222961 78.861241 1.237501
566 5 -43.542122 -42.569460 78.366101 0.906289
567 5 -46.066438 -42.056715 78.736339 1.681472
568 5 -45.852770 -39.409086 79.382917 1.029783
569 5 -48.875796 -40.623078 77.965942 1.561066
570 5 -46.237739 -46.904320 67.618030 1.179205
571 5 -48.293718 -47.245678 66.426037 1.219318
572 5 -47.846013 -49.955628 67.837255 1.849871
573 5 -45.540469 -51.694495 68.252279 1.056017
574 5 -50.793295 -47.818765 69.207156 2.028730
575 5 -49.580239 -50.471613 72.201345 2.121307
576 5 -41.268872 -46.775794 77.013495 2.197444
577 5 -38.834275 -48.774152 74.791446 1.653338
578 5 -42.477135 -49.677115 75.918277 1.114493
579 5 -39.362458 -44.402036 75.438684 1.200339
580 5 -40.992542 -46.679164 72.315397 2.236624
581 5 -36.902762 -45.345906 73.508424 2.037939
582 5 -37.129136 -27.683245 57.743095 1.314264
583 5 -39.012880 -29.913135 58.340294 1.662280
584 5 -36.353292 -28.348461 60.243014 1.372795
585 5 -38.002237 -32.477385 59.029791 1.174823
586 5 -33.912194 -29.982435 58.892707 1.847133
587 5 -34.521438 -32.036036 61.937764 1.848230
588 5 -46.875907 -42.635071 82.606846 1.369289
589 5 -44.678912 -42.380006 83.790585 1.136807
590 5 -43.619237 -44.028865 84.035398 0.830260
591 5 -45.249679 -41.342479 86.384362 1.703824
592 5 -44.800675 -42.504179 88.717260 0.930169
593 5 -45.867184 -42.977306 80.883633 0.651753
594 5 -30.308938 -46.261306 74.043243 1.724253
595 5 -30.927850 -43.521387 71.827583 1.849792
596 5 -30.760436 -47.453549 71.437881 1.150606
597 5 -33.500601 -45.704891 74.686157 1.558742
598 5 -33.435167 -41.896173 72.542366 1.195084
599 5 -32.442243 -46.614817 76.970416 1.099875
600 6 28.872721 18.833683 85.696189 0.786628
601 6 28.826867 17.652160 84.060002 1.230069
602 6 28.026985 17.679479 87.321547 1.359473
603 6 27.500474 15.811465 88.709796 1.015878
604 6 28.085800 13.656811 87.650330 1.443330
605 6 27.009757 19.110867 83.831076 1.101299
606 6 27.796126 16.782256 91.146326 1.619212
607 6 30.759280 15.084701 90.552837 0.917058
608 6 31.885306 17.494087 91.381256 1.865721
609 6 29.805572 15.242827 92.484165 1.227171
610 6 30.469221 17.778453 94.832347 1.846090
611 6 34.086821 19.613112 92.109726 1.251899
612 6 31.610052 21.797560 93.475043 2.308759
613 6 26.896550 20.496032 93.198256 2.541068
614 6 36.841430 19.309726 89.257883 1.818398
615 6 36.233451 22.050256 89.676234 1.016928
616 6 39.775029 19.681244 89.630019 1.135939
617 6 36.036450 17.818852 86.640308 1.291513
618 6 34.645817 22.464796 88.211138 1.162362
619 6 35.471546 16.157929 90.926643 1.965102
620 6 36.619523 20.462797 85.364225 1.694993
621 6 40.777511 24.632935 93.155416 0.722552
622 6 39.333612 25.909946 92.253222 1.403597
623 6 41.790031 25.198130 94.289772 0.894783
624 6 38.163646 22.673592 91.961031 2.028097
625 6 36.842689 20.281088 93.292535 0.998053
626 6 40.559063 26.732771 90.326297 1.016247
627 6 37.708571 19.002414 92.021042 1.000134
628 6 27.115062 14.491540 82.693692 1.183911
629 6 26.796584 16.927019 82.757615 1.270680
630 6 25.739353 16.817474 85.345145 1.504761
631 6 24.608860 18.866734 85.695421 0.847861
632 6 27.334412 19.101160 81.306134 1.374191
633 6 27.123719 13.327297 81.407277 0.547742
634 6 30.331030 8.544540 84.209139 0.834508
635 6 28.656549 7.328833 84.694903 1.288880
636 6 27.493430 10.085912 85.423441 1.772127
637 6 30.784055 10.110970 83.132775 1.107331
638 6 28.430844 6.303532 87.386382 1.584007
639 6 28.604662 12.831543 85.206605 1.183591
640 6 31.183051 21.423544 98.626719 1.126727
641 6 30.788800 21.205733 96.590413 0.956715
642 6 33.014013 22.828973 99.615566 1.362859
643 6 32.608307 23.061197 102.151652 1.211512
644 6 35.231699 23.634048 97.413168 1.849609
645 6 35.329684 26.919991 97.600479 1.419860
646 6 33.459526 4.813521 85.947890 0.688098
647 6 33.285564 4.242007 84.225751 1.132897
648 6 33.112091 3.890609 87.539735 1.174830
649 6 33.668667 7.323111 84.496770 1.967670
650 6 32.811354 9.640546 82.849675 0.974519
651 6 33.553023 8.774969 81.004586 1.181103
652 6 43.874173 23.661372 87.837389 1.097883
653 6 43.082180 25.337721 89.527357 1.408274
654 6 45.002955 22.256177 89.023664 1.049583