# vtk DataFile Version 3.0
Generated by DLA Aggregate Deposition
ASCII
DATASET POLYDATA
POINTS 20 float
4.103904e-07 -1.763222e-07 3.445029e-08
4.106597e-07 -1.722428e-07 4.093356e-08
4.180154e-07 -1.672158e-07 4.037523e-08
4.073346e-07 -1.773418e-07 4.661877e-08
4.075088e-07 -1.848202e-07 3.958498e-08
4.110022e-07 -1.754002e-07 2.556501e-08
4.206465e-07 -1.848171e-07 2.645700e-08
4.366630e-07 -1.809994e-07 4.365480e-08
4.354303e-07 -1.808771e-07 3.619342e-08
4.349048e-07 -1.816196e-07 2.715535e-08
4.314628e-07 -1.878358e-07 2.474386e-08
4.326394e-07 -1.719997e-07 4.125891e-08
4.410457e-07 -1.683840e-07 4.535077e-08
4.367599e-07 -1.675659e-07 5.160420e-08
4.139691e-07 -1.766951e-07 9.038206e-09
4.151655e-07 -1.843235e-07 1.173692e-08
4.174254e-07 -1.889635e-07 4.423808e-09
4.110003e-07 -1.828913e-07 1.922218e-08
4.160980e-07 -1.966081e-07 5.928341e-09
4.219078e-07 -1.729701e-07 6.061743e-09
VERTICES 20 40
1 0
1 1
1 2
1 3
1 4
1 5
1 6
1 7
1 8
1 9
1 10
1 11
1 12
1 13
1 14
1 15
1 16
1 17
1 18
1 19
POINT_DATA 20
SCALARS radius float 1
LOOKUP_TABLE default
3.479645e-09
4.177340e-09
4.724057e-09
4.129630e-09
6.109151e-09
5.421017e-09
7.965456e-09
2.627276e-09
4.928672e-09
4.091441e-09
3.343531e-09
5.565917e-09
4.434703e-09
3.119456e-09
3.673571e-09
4.497900e-09
4.423808e-09
4.167872e-09
3.466704e-09
5.546820e-09
SCALARS type float 1
LOOKUP_TABLE default
2
2
2
2
2
2
2
2
2
2
2
2
2
2
1
1
1
1
1
1
SCALARS id float 1
LOOKUP_TABLE default
0
1
2
3
4
5
6
7
8
9
10
11
12
13
14
15
16
17
18
19
SCALARS aggregate float 1
LOOKUP_TABLE default
0.0
0.0
0.0
0.0
0.0
0.0
0.0
0.0
0.0
0.0
0.0
0.0
0.0
0.0
0.0
0.0
0.0
0.0
0.0
0.0
SCALARS c_tot float 1
LOOKUP_TABLE default
0
0
0
0
0
0
0
0
0
0
0
0
0
0
0
0
0
0
0
0
SCALARS c_neig float 1
LOOKUP_TABLE default
0
0
0
0
0
0
0
0
0
0
0
0
0
0
0
0
0
0
0
0
SCALARS c_same float 1
LOOKUP_TABLE default
0
0
0
0
0
0
0
0
0
0
0
0
0
0
0
0
0
0
0
0
